{
  "abaddon_title" : "Abaddon Code",

  "about_version" : "Version",
  "about_maintainer" : "Maintainer & Developer",
  "about_contact_email" : "eMail",
  "about_contact_website" : "Website",
  "about_contact_twitter" : "Twitter",
  "about_contact_facebook" : "Facebook",
  "about_license" : "License",
  "about_github" : "GitHub",
  "about_thanks" : "Thanks to",
  "about_notfornazis" : "Not for nazis, racists and fascists!",

  "adfgvx_title" : "ADFG(V)X",
  "adfgvx_mode_adfgx" : "ADFGX (5)",
  "adfgvx_mode_adfgvx" : "ADFGVX (6)",
  "adfgvx_key_substitution" : "Substitution Key",
  "adfgvx_key_transposition" : "Transposition Key",

  "asciivalues_title" : "ASCII",
  "asciivalues_mode_left" : "A-Z → ASCII",
  "asciivalues_mode_right" : "ASCII → A-Z",

  "atbash_title" : "Atbash",

  "bacon_title" : "Bacon Cipher",

  "base_selection_title" : "Base Encodings",
  "base_base16_title" : "Base16",
  "base_base32_title" : "Base32",
  "base_base64_title" : "Base64",
  "base_base85_title" : "Base85 (ASCII85)",

  "brainfk_title" : "Brainf**k",
  "brainfk_interpret" : "Interpreter",
  "brainfk_generate" : "Generator",
  "brainfk_code" : "Code",
  "brainfk_text" : "Text",
  "brainfk_input" : "Input",
  "brainfk_error_pointertoosmall" : "Pointer too small",
  "brainfk_error_loopnotclosed" : "Loop not closed",
  "brainfk_error_loopnotopened" : "Loop not opened",
  "brainfk_ook_title" : "Ook",

  "caesar_title" : "Caesar Cipher",

  "callforcontribution_1" : "GCWizard is a tool from Geocachers for Geocachers.\n\n",
  "callforcontribution_2" : "The developers and contributers created it completely during their free time. But such a huge app needs many months of hard work. This is a very hard job for just a few workers.\n\n",
  "callforcontribution_3" : "That's why we need YOU!\n\n",
  "callforcontribution_4" : "You would like to help us? You can contribute anything to the project? That's awesome! Absolutely every single help and contribution is appreciated!\n\n",
  "callforcontribution_5" : "You can help us with the development?\n\n",
  "callforcontribution_6" : "The GCWizard is an Open Source tool. The code source is free and available on ",
  "callforcontribution_7" : "GitHub (License: GNU GPL v3.0)",
  "callforcontribution_8" : ". Especially, we would love to get help with:\n\n",
  "callforcontribution_9" : "- Frontend (Flutter)\n- UI/UX\n- Design/Graphics\n\n",
  "callforcontribution_10" : "Furthermore, the plan is to release the GCWizard for iOS, as well. Unfortunately, to publish something to the App Store, the app has to be created on a Macbook. So, maybe you are an\n\n",
  "callforcontribution_11" : "- iOS developer\n\n",
  "callforcontribution_12" : "or you can donate a (not too) old Macbook? This would help to make GCWizard also available for iPhone users.\n\n",
  "callforcontribution_13" : "But, of course, ",
  "callforcontribution_14" : "everyone",
  "callforcontribution_15" : " can take over a task. We'll surely find one for you: What about ",
  "callforcontribution_16" : "app testing",
  "callforcontribution_17" : ", ",
  "callforcontribution_18" : "writing a manual",
  "callforcontribution_19" : " or doing some ",
  "callforcontribution_20" : "translation",
  "callforcontribution_21" : "? Maybe you want to do some ",
  "callforcontribution_22" : "community support",
  "callforcontribution_23" : " at a social media platform?\n\nDon't hesitate to ask us:\n\n",
  "callforcontribution_24" : "Contact\n\n",
  "callforcontribution_25" : "Let GCWizard become a community project!",

  "ccitt2_title" : "CCITT2 (Baudot)",
  "ccitt2_numeral_base" : "Coding",

  "changelog_0.6.0" : "[new] Website Release gcwizard.net\n[new] First Symbol Tables (Thanks, Aeggsbaerde)\n[new] Periodic Table of the Elements\n[new] Decabit (Thanks, Dennis)\n[new] Trithemius/Gronsfeld (Thanks, Dennis)\n[new] CCITT/Baudot/Z22\n[new] Tapir\n[new] Abaddon/TomTom Code (Thanks, Dennis)\n[chg] Several layout enhancements",
  "changelog_0.5.1" : "[new] GitHub Release\n[fix] About: eMail link (Thanks, Andy)\n[fix] Search Engine: Umlauts\n[fix] Minor fixes and enhancements (layout, typos)",
  "changelog_0.5.0" : "[new] Main Menu (Settings, About, Changelog, Contribution)\n[new] Search Engine\n[new] Enigma\n[new] Brainf**k/Ook\n[new] Roman Numbers\n[new] Kenny's Code\n[new] Pi/Phi/e",
  "changelog_0.4.0" : "[new] Coordinates: Resection\n[new] Formula Solver\n[chg] Updated Internal Framework\n[chg] Letter Values: Unknown Character = <?>",
  "changelog_0.3.2" : "[fix] Decode Base functions (Thanks for reporting, Michael)",
  "changelog_0.3.0" : "[new] Meaningful version numbers\n[new] Prime Numbers\n[new] Numeral Bases\n[new] Morse\n[new] Playfair\n[new] ADFG(V)X\n[new] Bacon\n[chg] Date and Coordinates Input Workflow\n[chg] Different Layout and Architecture Changes\n[fix] Typos",
  "changelog_0.0.4" : "[fix] Calculation of hours/minutes/seconds in 'Count Days'",
  "changelog_0.0.1" : "[new] Google PlayStore Initialisation",

  "common_app_title" : "GC Wizard",
  "common_search_hint" : "Search...",
  "common_error" : "Error",
  "common_submit_button_text" : "Submit",
  "common_hinttext_default" : "Enter value",
  "common_output" : "Output",
  "common_radius" : "Radius",
  "common_bearing_hint" : "Enter bearing (degrees)",
  "common_distance_hint" : "Enter distance",
  "common_key" : "Key",
  "common_encrypt" : "Encrypt",
  "common_decrypt" : "Decrypt",
  "common_alphabet" : "Alphabet",
  "common_custom" : "Custom",
  "common_switch_title" : "Mode",
  "common_portrait" : "Portrait",
  "common_landscape" : "Landscape",
  "common_unknown" : "Unknown",
  "common_sorting" : "Sort Order",
  "common_sorting_asc" : "Ascending",
  "common_sorting_desc" : "Descending",

  "common_numeralbase_binary" : "Binary",
  "common_numeralbase_ternary" : "Ternary",
  "common_numeralbase_quaternary" : "Quaternary",
  "common_numeralbase_quinary" : "Quinary",
  "common_numeralbase_senary" : "Senary",
  "common_numeralbase_septenary" : "Septenary",
  "common_numeralbase_octenary" : "Octal",
  "common_numeralbase_nonary" : "Nonary",
  "common_numeralbase_denary" : "Decimal",
  "common_numeralbase_undenary" : "Undecimal",
  "common_numeralbase_duodenary" : "Duodecimal",
  "common_numeralbase_hexadecimal" : "Hexadecimal",
  "common_numeralbase_vigesimal" : "Vigesimal",
  "common_numeralbase_sexagesimal" : "Sexagesimal",

  "coords_selection_title" : "Coordinates",
  "coords_common_latitude" : "Latitude",
  "coords_common_longitude" : "Longitude",
  "coords_common_north" : "North",
  "coords_common_south" : "South",
  "coords_common_east" : "East",
  "coords_common_west" : "West",
  "coords_show_on_map": "Show on map",
  "coords_map_view_title": "Map View",
  "coords_output_format": "Output Format",
  "coords_waypointprojection_title": "Waypoint Projection",
  "coords_waypointprojection_start" : "Start",
  "coords_waypointprojection_end" : "Destination",
  "coords_distancebearing_title" : "Distance and Bearing",
  "coords_distancebearing_coorda" : "Coordinate A",
  "coords_distancebearing_coordb" : "Coordinate B",
  "coords_distancebearing_distance" : "Distance",
  "coords_distancebearing_bearingatob" : "Bearing from A to B",
  "coords_distancebearing_bearingbtoa" : "Bearing from B to A",
  "coords_intersecttwocircles_title" : "Intersections of Two Circles",
  "coords_intersectthreecircles_title" : "Intersections of Three Circles",
  "coords_intersectthreecircles_marker_accuracy" : "Deviation",
  "coords_intersectcircles_centerpoint1" : "First Center Point",
  "coords_intersectcircles_centerpoint2" : "Second Center Point",
  "coords_intersectcircles_centerpoint3" : "Third Center Point",
  "coords_intersect_nointersection" : "No intersections found",
  "coords_intersectcircles_marker_centerpoint1" : "1",
  "coords_intersectcircles_marker_centerpoint2" : "2",
  "coords_intersectcircles_marker_centerpoint3" : "3",
  "coords_intersectbearingcircle_title" : "Intersections of Line and Circle",
  "coords_intersectbearingcircle_geodetic" : "Start Point of Line",
  "coords_intersectbearingcircle_circle" : "Center Point of Circle",
  "coords_intersectbearings_title" : "Intersection of two Lines (Bearings)",
  "coords_intersectbearings_coord1" : "Start Point of First Line",
  "coords_intersectbearings_coord2" : "Start Point of Second Line",
  "coords_intersectfourpoints_title" : "Intersection of Line from Four Points",
  "coords_intersectfourpoints_coord11" : "Start Point of First Line",
  "coords_intersectfourpoints_coord12" : "End Point of First Line",
  "coords_intersectfourpoints_coord21" : "Start Point of Second Line",
  "coords_intersectfourpoints_coord22" : "End Point of Second Line",
  "coords_centertwopoint_title" : "Center Point of Two Coordinates",
  "coords_centertwopoint_coorda" : "Coordinate A",
  "coords_centertwopoint_coordb" : "Coordinate B",
  "coords_centerthreepoint_title" : "Center Point of Three Coordinates",
  "coords_centerthreepoint_coorda" : "Coordinate A",
  "coords_centerthreepoint_coordb" : "Coordinate B",
  "coords_centerthreepoint_coordc" : "Coordinate C",
  "coords_center_distance" : "Distance",
  "coords_crossbearing_title" : "Cross Bearing",
  "coords_crossbearing_coord1" : "End Point of First Line",
  "coords_crossbearing_coord2" : "End Point of Second Line",
  "coords_formatconverter_title" : "Format Converter",
  "coords_formatconverter_coord" : "Coordinate",
  "coords_formatconverter_utm_lonzone" : "Lon Zone",
  "coords_formatconverter_utm_easting" : "Easting",
  "coords_formatconverter_utm_northing" : "Northing",
  "coords_formatconverter_mgrs_lonzone" : "Lon Zone",
  "coords_formatconverter_mgrs_easting" : "Easting",
  "coords_formatconverter_mgrs_northing" : "Northing",
  "coords_formatconverter_swissgrid_easting" : "Easting",
  "coords_formatconverter_swissgrid_northing" : "Northing",
  "coords_formatconverter_gausskrueger_easting" : "Easting",
  "coords_formatconverter_gausskrueger_northing" : "Northing",
  "coords_formatconverter_gausskrueger_gk1" : "Gauss-Krueger 1: DHDN 2001",
  "coords_formatconverter_gausskrueger_gk2" : "Gauss-Krueger 2: DHDN 1995",
  "coords_formatconverter_gausskrueger_gk3" : "Gauss-Krueger 3: North Germany",
  "coords_formatconverter_gausskrueger_gk4" : "Gauss-Krueger 4: Middle Germany",
  "coords_formatconverter_gausskrueger_gk5" : "Gauss-Krueger 5: South Germany",
  "coords_formatconverter_maidenhead_locator" : "Maidenhead Locator",
  "coords_formatconverter_mercator_easting" : "Easting",
  "coords_formatconverter_mercator_northing" : "Northing",
  "coords_formatconverter_geohash_locator" : "Geohash",
  "coords_intersection_title" : "Intersection",
  "coords_intersection_coorda" : "Coordinate A",
  "coords_intersection_coordb" : "Coordinate B",
  "coords_intersection_anglea" : "Angle A",
  "coords_intersection_angleb" : "Angle B",
  "coords_equilateraltriangle_title" : "Equilateral Triangle",
  "coords_equilateraltriangle_coorda" : "Coordinate A",
  "coords_equilateraltriangle_coordb" : "Coordinate B",
  "coords_ellipsoidtransform_title" : "Ellipsoid/Date Converter",
  "coords_ellipsoidtransform_coord" : "Coordinate",
  "coords_ellipsoidtransform_fromellipsoiddate" : "From Ellipsoid/Date",
  "coords_ellipsoidtransform_toellipsoiddate" : "To Ellipsoid/Date",
  "coords_resection_title" : "Resection",
  "coords_resection_coorda" : "Coordinate A",
  "coords_resection_coordb" : "Coordinate B",
  "coords_resection_coordc" : "Coordinate C",
  "coords_resection_angle12" : "Angle between A and B",
  "coords_resection_angle23" : "Angle between B and C",
  "coords_ellipsoid_name" : "Name",
  "coords_ellipsoid_name_userdefined" : "User defined",
  "coords_ellipsoid_inverseflattening" : "Inv. Flattening 1/f",
  "coords_ellipsoid_flattening" : "Flattening f",
  "coords_ellipsoid_majoraxis" : "Major Axis a",
  "coords_ellipsoid_minoraxis" : "Minor Axis b",

  "crosstotal_title" : "Show Sums",
  "crosstotal_output" : "Sums, Cross Sums, Products",
  "crosstotal_count_characters" : "Count Characters",
  "crosstotal_count_letters" : "Count Letters",
  "crosstotal_count_digits" : "Count Digits",
  "crosstotal_sum" : "Sum",
  "crosstotal_sum_alternated_back" : "Sum alternated (backward)",
  "crosstotal_sum_alternated_forward" : "Sum alternated (forward)",
  "crosstotal_crosssum" : "Cross Sum",
  "crosstotal_crosssum_iterated" : "Cross Sum iterated",
  "crosstotal_crosssum_alternated_back" : "Cross Sum alternated (backward)",
  "crosstotal_crosssum_alternated_forward" : "Cross Sum alternated (forward)",
  "crosstotal_sum_crosssum" : "Cross Sum of Sum",
  "crosstotal_sum_crosssum_iterated" : "Cross Sum iter. of Sum",
  "crosstotal_sum_crosssum_alternated_back" : "Cross Sum alter. (backw.) of Sum",
  "crosstotal_sum_crosssum_alternated_forward" : "Cross Sum alter. (forw.) of Sum",
  "crosstotal_product" : "Product",
  "crosstotal_product_alternated" : "Product alternated",
  "crosstotal_product_crosssum" : "Cross Sum of Product",
  "crosstotal_product_crosssum_iterated" : "Cross Sum iter. of Product",
  "crosstotal_product_crosssum_alternated_back" : "Cross Sum alter. (backw.) of Product",
  "crosstotal_product_crosssum_alternated_forward" : "Cross Sum alter. (forw.) of Product",
  "crosstotal_crossproduct" : "Cross Product",
  "crosstotal_crossproduct_iterated" : "Cross Product iterated",
  "crosstotal_crossprocut_alternated" : "Cross Product alternated",

  "dates_selection_title" : "Date and Time functions",
  "dates_daycalculator_title" : "Count days",
  "dates_daycalculator_startdate" : "Start Date (Year, Month, Day)",
  "dates_daycalculator_enddate" : "End Date (Year, Month, Day)",
  "dates_daycalculator_countstart" : "Count Start",
  "dates_daycalculator_countend" : "Count End",
  "dates_daycalculator_days" : "Days",
  "dates_daycalculator_hours" : "Hours",
  "dates_daycalculator_minutes" : "Minutes",
  "dates_daycalculator_seconds" : "Seconds",
  "dates_weekday_title" : "Week Day",
  "dates_weekday_date" : "Date (Year, Month, Day)",
  "dates_weekday_monday" : "Monday",
  "dates_weekday_tuesday" : "Tuesday",
  "dates_weekday_wednesday" : "Wednesday",
  "dates_weekday_thursday" : "Thursday",
  "dates_weekday_friday" : "Friday",
  "dates_weekday_saturday" : "Saturday",
  "dates_weekday_sunday" : "Sunday",

  "decabit_numeric_mode" : "Numeric",
  "decabit_title" : "Decabit",

  "e_selection_title" : "e (e = 2.7182818...)",

  "enigma_title": "Enigma",
  "enigma_output_rotorsettingafter" : "Current Rotor Setting",
  "enigma_plugboard" : "Plugboard",
  "enigma_entryrotor" : "Entry Rotor (Stator, ETW)",
  "enigma_reflector" : "Reflector (UKW)",
  "enigma_rotors" : "Rotors: Name | Offset (Inner) | Setting (Outer)",
  "enigma_numberrotors" : "Count",
  "enigma_input" : "Input",

  "formulasolver_title" : "Formula Solver",
  "formulasolver_group" : "Group",
  "formulasolver_formulas" : "Formulas",
  "formulasolver_values" : "Value",
  "formulasolver_groups_newgroup" : "Add Formula Group",
  "formulasolver_groups_newgroup_hint" : "Enter Group Name",
  "formulasolver_groups_currentgroups" : "Created Formula Groups",
  "formulasolver_formulas_values" : "Values",
  "formulasolver_formulas_newformula" : "Add Formula",
  "formulasolver_formulas_newformula_hint" : "Enter Formula",
  "formulasolver_formulas_currentformulas" : "Created Formulas",
  "formulasolver_formulas_notcomputable" : "Not computable!",
  "formulasolver_values_newvalue" : "Add Variable",
  "formulasolver_values_key" : "Name",
  "formulasolver_values_value" : "Value",
  "formulasolver_values_currentvalues" : "Created Variables",

  "gronsfeld_title" : "Gronsfeld Cipher",

  "irrationalnumbers_error_indextoosmall" : "Index too small",
  "irrationalnumbers_error_indextoobig" : "Index too big",
  "irrationalnumbers_decimalrange_start" : "Start Index",
  "irrationalnumbers_decimalrange_length" : "Number of Digits",
  "irrationalnumbers_nooccurrence" : "Value not found in the first %s1 digits.",
  "irrationalnumbers_nthdecimal_title" : "nth Decimal Digit",
  "irrationalnumbers_decimalrange_title" : "Range",
  "irrationalnumbers_search_title" : "Search Occurrence",

  "kamasutra_title" : "Kamasutra",

  "kenny_title" : "Kenny's Code",

  "lettervalues_title" : "Letter Values",
  "lettervalues_mode_left" : "A-Z → 1-26",
  "lettervalues_mode_right" : "1-26 → A-Z",

  "mainmenu_about_title" : "About",
  "mainmenu_settings_title" : "Settings",
  "mainmenu_changelog_title" : "Changelog",
  "mainmenu_callforcontribution_title" : "Would you like to help us?",

  "morse_title" : "Morse",
  "morse_short" : "Short",
  "morse_long" : "Long",
  "morse_next_letter" : "Next",
  "morse_next_word" : "Next Word",

  "numeralbases_title" : "Numeral Bases",
  "numeralbases_from" : "From",
  "numeralbases_to" : "To",

  "periodictable_title" : "Periodic Table of the Elements",
  "periodictable_element_actinium" : "Actinium",
  "periodictable_element_aluminium" : "Aluminium",
  "periodictable_element_americum" : "Americum",
  "periodictable_element_antimony" : "Antimony",
  "periodictable_element_argon" : "Argon",
  "periodictable_element_arsenic" : "Arsenic",
  "periodictable_element_astatine" : "Astatine",
  "periodictable_element_barium" : "Barium",
  "periodictable_element_berkelium" : "Berkelium",
  "periodictable_element_beryllium" : "Beryllium",
  "periodictable_element_bismuth" : "Bismuth",
  "periodictable_element_bohrium" : "Bohrium",
  "periodictable_element_boron" : "Boron",
  "periodictable_element_bromine" : "Bromine",
  "periodictable_element_cadmium" : "Cadmium",
  "periodictable_element_caesium" : "Caesium",
  "periodictable_element_calcium" : "Calcium",
  "periodictable_element_californium" : "Californium",
  "periodictable_element_carbon" : "Carbon",
  "periodictable_element_cerium" : "Cerium",
  "periodictable_element_chlorine" : "Chlorine",
  "periodictable_element_chromium" : "Chromium",
  "periodictable_element_cobalt" : "Cobalt",
  "periodictable_element_copernicium" : "Copernicium",
  "periodictable_element_copper" : "Copper",
  "periodictable_element_curium" : "Curium",
  "periodictable_element_darmstadtium" : "Darmstadtium",
  "periodictable_element_dubnium" : "Dubnium",
  "periodictable_element_dysprosium" : "Dysprosium",
  "periodictable_element_einsteinium" : "Einsteinium",
  "periodictable_element_erbium" : "Erbium",
  "periodictable_element_europium" : "Europium",
  "periodictable_element_fermium" : "Fermium",
  "periodictable_element_fluorine" : "Fluorine",
  "periodictable_element_francium" : "Francium",
  "periodictable_element_gadolinium" : "Gadolinium",
  "periodictable_element_gallium" : "Gallium",
  "periodictable_element_germanium" : "Germanium",
  "periodictable_element_gold" : "Gold",
  "periodictable_element_hafnium" : "Hafnium",
  "periodictable_element_hassium" : "Hassium",
  "periodictable_element_helium" : "Helium",
  "periodictable_element_holmium" : "Holmium",
  "periodictable_element_hydrogen" : "Hydrogen",
  "periodictable_element_indium" : "Indium",
  "periodictable_element_iodine" : "Iodine",
  "periodictable_element_iridium" : "Iridium",
  "periodictable_element_iron" : "Iron",
  "periodictable_element_krypton" : "Krypton",
  "periodictable_element_lanthanum" : "Lanthanum",
  "periodictable_element_lawrencium" : "Lawrencium",
  "periodictable_element_lead" : "Lead",
  "periodictable_element_lithium" : "Lithium",
  "periodictable_element_lutetium" : "Lutetium",
  "periodictable_element_magnesium" : "Magnesium",
  "periodictable_element_manganese" : "Manganese",
  "periodictable_element_meitnerium" : "Meitnerium",
  "periodictable_element_mendelevium" : "Mendelevium",
  "periodictable_element_mercury" : "Mercury",
  "periodictable_element_molybdenum" : "Molybdenum",
  "periodictable_element_neodymium" : "Neodymium",
  "periodictable_element_neon" : "Neon",
  "periodictable_element_neptunium" : "Neptunium",
  "periodictable_element_nickel" : "Nickel",
  "periodictable_element_niobium" : "Niobium",
  "periodictable_element_nitrogen" : "Nitrogen",
  "periodictable_element_nobelium" : "Nobelium",
  "periodictable_element_osmium" : "Osmium",
  "periodictable_element_oxygen" : "Oxygen",
  "periodictable_element_palladium" : "Palladium",
  "periodictable_element_phosphorus" : "Phosphorus",
  "periodictable_element_platinum" : "Platinum",
  "periodictable_element_plutonium" : "Plutonium",
  "periodictable_element_polonium" : "Polonium",
  "periodictable_element_potassium" : "Potassium",
  "periodictable_element_praseodymium" : "Praseodymium",
  "periodictable_element_promethium" : "Promethium",
  "periodictable_element_protactinium" : "Protactinium",
  "periodictable_element_radium" : "Radium",
  "periodictable_element_radon" : "Radon",
  "periodictable_element_rhenium" : "Rhenium",
  "periodictable_element_rhodium" : "Rhodium",
  "periodictable_element_roentgenium" : "Roentgenium",
  "periodictable_element_rubidium" : "Rubidium",
  "periodictable_element_ruthenium" : "Ruthenium",
  "periodictable_element_rutherfordium" : "Rutherfordium",
  "periodictable_element_samarium" : "Samarium",
  "periodictable_element_scandium" : "Scandium",
  "periodictable_element_seaborgium" : "Seaborgium",
  "periodictable_element_selenium" : "Selenium",
  "periodictable_element_silicon" : "Silicon",
  "periodictable_element_silver" : "Silver",
  "periodictable_element_sodium" : "Sodium",
  "periodictable_element_strontium" : "Strontium",
  "periodictable_element_sulfur" : "Sulfur",
  "periodictable_element_tantalum" : "Tantalum",
  "periodictable_element_technetium" : "Technetium",
  "periodictable_element_tellurium" : "Tellurium",
  "periodictable_element_terbium" : "Terbium",
  "periodictable_element_thallium" : "Thallium",
  "periodictable_element_thorium" : "Thorium",
  "periodictable_element_thulium" : "Thulium",
  "periodictable_element_tin" : "Tin",
  "periodictable_element_titanium" : "Titanium",
  "periodictable_element_tungsten" : "Tungsten",
  "periodictable_element_livermorium" : "Livermorium",
  "periodictable_element_oganesson" : "Oganesson",
  "periodictable_element_moscovium" : "Moscovium",
  "periodictable_element_flerovium" : "Flerovium",
  "periodictable_element_tenessine" : "Tennessine",
  "periodictable_element_nihonium" : "Nihonium",
  "periodictable_element_uranium" : "Uranium",
  "periodictable_element_vanadium" : "Vanadium",
  "periodictable_element_xenon" : "Xenon",
  "periodictable_element_ytterbium" : "Ytterbium",
  "periodictable_element_yttrium" : "Yttrium",
  "periodictable_element_zinc" : "Zinc",
  "periodictable_element_zirconium" : "Zirconium",
  "periodictable_comment_massnotexact" : "Atomic mass is often not correctly determinable for radioactive elements",
  "periodictable_comment_noblegases" : "Noble gases mostly do not have any electronegativity",
  "periodictable_comment_mayreactwithf" : "Under extrem circumstances reactions with F",
  "periodictable_comment_densityvaries" : "Density/Melting point/Boiling point hardly fluctuate in various sources or are unknown",
  "periodictable_comment_mostcommonisotop" : "Most common isotope not determinable, so isotope with highest half-life is given",
  "periodictable_comment_c" : "Sublimates at 3642°C/6588°F; values are for diamond; for graphite: MP 3675°C/6647°F, BP 4026°C/7279°F, density 2.26",
  "periodictable_comment_p" : "Density P white: 1.83, red: 2.0-2.4, black: 2.69; shown BP is for P white",
  "periodictable_comment_as_1" : "Sublimates at 613°C/1135°F, melts only under high pressure",
  "periodictable_comment_as_2" : "Density As grey: 5.72, yellow: 1.97, black: 4.7-5.1",
  "periodictable_comment_tc" : "Only very least quantities are natural, mostly synthetic",
  "periodictable_comment_sn" : "Density is for β-Sn; α-Sn: 5.769",
  "periodictable_comment_la" : "Some sources count La to Lanthanoides",
  "periodictable_comment_re" : "Very weak radioactivity",
  "periodictable_comment_os" : "Exact values vor MP/BP not possible; MP: 3400 +- 50K, BP: 5300 +- 100K",
  "periodictable_comment_bi" : "Since 2003 classified as weakly radioactive",
  "periodictable_comment_at" : "In many sources density is unknown",
  "periodictable_comment_ac" : "Some sources count Ac to Actinoids",
  "periodictable_comment_pa" : "Boiling point imprecise",
  "periodictable_comment_bk" : "Boiling point unknown",
  "periodictable_comment_rg" : "In 2004 Unununium (Uuu) has been renamed into Rg",
  "periodictable_comment_cn_1" : "In 2010 Ununbium (Uub) has been renamed into Cn",
  "periodictable_comment_fl" : "In 2012 Ununquadium (Uuq) has been renamed into Fl",
  "periodictable_comment_lv" : "In 2012 Ununhexium (Uuh) has been renamed into Lv",
  "periodictable_comment_xe" : ", Cl, O, N",
  "periodictable_comment_nh" : "In 2016 Ununtrium (Uut) has been renamed into Nh",
  "periodictable_comment_og" : "In 2016 Ununoctium (Uuo) has been renamed into Og",
  "periodictable_comment_mc" : "In 2016 Ununpentium (Uup) has been renamed into Mc",
  "periodictable_comment_ts" : "In 2016 Ununseptium (Uus) has been renamed into Ts",
  "periodictable_attribute" : "Attribute",
  "periodictable_attribute_elementname" : "Element Name",
  "periodictable_attribute_chemicalsymbol" : "Chemical Symbol",
  "periodictable_attribute_atomicnumber" : "Atomic Number",
  "periodictable_attribute_iupacgroup" : "IUPAC Group",
  "periodictable_attribute_maingroup" : "Main Group",
  "periodictable_attribute_subgroup" : "Sub Group",
  "periodictable_attribute_period" : "Period",
  "periodictable_attribute_iupacgroupname" : "IUPAC Group Name (Series)",
  "periodictable_attribute_iupacgroupname_alkalimetals" : "Alkali Metals",
  "periodictable_attribute_iupacgroupname_alkalineearthmetals" : "Alkaline Earth Metals",
  "periodictable_attribute_iupacgroupname_earthmetals" : "Earth Metals",
  "periodictable_attribute_iupacgroupname_tetrels" : "Tetrels",
  "periodictable_attribute_iupacgroupname_pnictogens" : "Pnictogens",
  "periodictable_attribute_iupacgroupname_chalcogens" : "Chalcogens",
  "periodictable_attribute_iupacgroupname_halogens" : "Halogens",
  "periodictable_attribute_iupacgroupname_noblegases" : "Noble Gases",
  "periodictable_attribute_iupacgroupname_lanthanides" : "Lanthanides",
  "periodictable_attribute_iupacgroupname_actinides" : "Actinides",
  "periodictable_attribute_stateofmatter" : "State of Matter",
  "periodictable_attribute_stateofmatter_solid" : "Solid",
  "periodictable_attribute_stateofmatter_liquid" : "Liquid",
  "periodictable_attribute_stateofmatter_gas" : "Gas",
  "periodictable_attribute_mass" : "Atomic Mass",
  "periodictable_attribute_meltingpoint" : "Melting Point",
  "periodictable_attribute_boilingpoint" : "Boiling Point",
  "periodictable_attribute_electronegativity" : "Electronegativity",
  "periodictable_attribute_electronegativity_none" : "None",
  "periodictable_attribute_density" : "Density",
  "periodictable_attribute_issynthetic" : "Natural/Synthetic",
  "periodictable_attribute_issynthetic_alternative" : "Natural Occurrence",
  "periodictable_attribute_issynthetic_true" : "Synthetic",
  "periodictable_attribute_issynthetic_false" : "Natural",
  "periodictable_attribute_isradioactive" : "Radioactivity",
  "periodictable_attribute_isradioactive_true" : "Radioactive",
  "periodictable_attribute_isradioactive_false" : "Not Radioactive",
  "periodictable_attribute_halflife" : "Half-Life",
  "periodictable_attribute_halflife_stable" : "Stable",
  "periodictable_attribute_mostcommonisotop" : "Most Common Isotop",
  "periodictable_attribute_comments" : "Comments",

  "phi_selection_title" : "Phi (Φ = 1.6180339...)",

  "pi_selection_title" : "Pi (π = 3.1415926...)",

  "playfair_title" : "Playfair",
  "playfair_mode" : "Mode",
  "playfair_mode_jtoi" : "J = I",
  "playfair_mode_wtovv" : "W = VV",

  "polybios_title" : "Polybios Cipher",
  "polybios_mode_az09" : "A-Z 0-9",
  "polybios_mode_za90" : "Z-A 9-0",
  "polybios_usedgrid" : "Used Grid",

  "primes_selection_title" : "Prime Numbers",
  "primes_nthprime_title" : "nth Prime Number",
  "primes_isprime_title" : "Is Prime Number?",
  "primes_isprime_isprime" : "Value IS prime!",
  "primes_noprime" : "Value is NOT a prime number.",
  "primes_nearestprime_title" : "Nearest Prime",
  "primes_primeindex_title" : "Prime Number Index (n)",
  "primes_integerfactorization_title" : "Integer Factorization",

  "romannumbers_title" : "Roman Numbers",
  "romannumbers_subtractionrule" : "IIII → IV",
  "romannumbers_numberstoroman" : "123 → Roman",
  "romannumbers_romantonumbers" : "Roman → 123",

  "rotation_selection_title" : "Rotation (ROT-X)",
  "rotation_rot13_title" : "ROT13",
  "rotation_rot5_title" : "ROT5",
  "rotation_rot18_title" : "ROT18",
  "rotation_rot47_title" : "ROT47",
  "rotation_rotation_title" : "Rotation",

  "scrabble_title" : "Scrabble",
  "scrabble_mode" : "Letter...",
  "scrabble_mode_values" : "Values",
  "scrabble_mode_frequency" : "Frequency",
  "scrabble_version_en" : "English",
  "scrabble_version_en_superscrabble" : "English (SuperScrabble)",
  "scrabble_version_d" : "German",
  "scrabble_version_d_1955" : "German (1955)",
  "scrabble_version_d_19551987" : "German (1955-1987)",
  "scrabble_version_d_northamerica" : "German (North America)",
  "scrabble_version_nl" : "Dutch",
  "scrabble_version_f" : "French",
  "scrabble_version_e" : "Spanish",
  "scrabble_version_e_northamerica" : "Spanish (North America)",
  "scrabble_version_i" : "Italian",
  "scrabble_version_cz" : "Czech",
  "scrabble_version_sk" : "Slovak",
  "scrabble_version_sk_until2013" : "Slovak (until 2013)",
  "scrabble_version_irl" : "Irish",
  "scrabble_version_pl" : "Polish",
  "scrabble_version_pl_until2000" : "Polish (until 2000)",
  "scrabble_version_p" : "Portuguese",
  "scrabble_version_fin" : "Finnish",
  "scrabble_version_swe" : "Swedish",
  "scrabble_version_klingon" : "Klingon",

  "settings_general_title" : "General",
  "settings_general_text" : "Font Settings",
  "settings_general_text_size" : "Size",
  "settings_general_symboltables" : "Symbol Tables (Number Images per Row)",
  "settings_coordinates_title" : "Coordinates",
  "settings_coordinates_defaultformat" : "Default Format",
  "settings_coordinates_defaulthemispheres" : "Default Hemispheres",
  "settings_coordinates_defaultrotationellipsoid" : "Default Ellipsoid",
  "settings_coordinates_defaultrotationellipsoid_existing" : "From list",
  "settings_coordinates_defaultrotationellipsoid_user" : "Specify own",

  "skytale_title" : "Skytale",
  "skytale_perimeter" : "Perimeter",
  "skytale_stripwidth" : "Strip Width",
  "skytale_countcolumns" : "Columns",

  "substitution_title" : "Substitution",
  "substitution_from" : "Replace this...",
  "substitution_to" : "...with this",
  "substitution_current_substitutions" : "Created Replacements",
  "substitution_case_sensitive" : "Case sensitive",

  "symboltables_title" : "Symbol Tables",
  "symboltables_showoverlay" : "Overlays",
  "symboltables_arcadian_title" : "Arcadian",
  "symboltables_braille_title" : "Braille (Tactile)",
  "symboltables_intergala_title" : "Intergalactic Code",
  "symboltables_finger_title" : "Finger Alphabet",
  "symboltables_finger_ch" : "CH",
  "symboltables_finger_sch" : "SCH",
  "symboltables_flags_title" : "Flag Alphabet",
  "symboltables_freemason_title" : "Freemason",
  "symboltables_freemason_v2_title" : "Freemason Variant",
  "symboltables_hexahue_title" : "Hexahue",
  "symboltables_lorm_title" : "Lorm Alphabet",
  "symboltables_lorm_ch" : "CH",
  "symboltables_lorm_sch" : "SCH",
  "symboltables_lorm_st" : "ST",
  "symboltables_moon_title" : "Moon Alphabet (Tactile)",
  "symboltables_murray_title" : "Murray",
  "symboltables_nato_title" : "NATO Flags",
  "symboltables_pipeline_title" : "Pipeline 3D",
  "symboltables_postnet_title" : "PostNet",
  "symboltables_puzzle_title" : "Puzzle Code",
  "symboltables_semaphore_title" : "Semaphore",
  "symboltables_semaphore_cancel" : "CANCEL",
  "symboltables_semaphore_correct" : "CORRECT",
  "symboltables_semaphore_error_attention" : "ERROR/ATTENTION",
  "symboltables_semaphore_letters_following" : "LETTERS FOLLOWING",
  "symboltables_semaphore_numerals_following" : "NUMBERS FOLLOWING",
  "symboltables_semaphore_rest" : "REST",
  "symboltables_romulan_title" : "Romulan",

  "tapir_title" : "Tapir",
  "tapir_onetimepad" : "OTP Key",

  "tomtom_title" : "TomTom Code",

  "trithemius_title" : "Trithemius Cipher",

  "vigenere_title" : "Vigenère Cipher",
  "vigenere_autokey" : "Autokey",

  "z22_title" : "Z22"
}